90
Step: 0 PSVAP water box MD t=0.000ps
O       1.00000      1.00000      1.00000
H       1.96000      1.00000      1.00000
H       0.68000      1.91000      1.00000
O       2.80000      1.00000      1.00000
H       3.76000      1.00000      1.00000
H       2.48000      1.91000      1.00000
O       4.60000      1.00000      1.00000
H       5.56000      1.00000      1.00000
H       4.28000      1.91000      1.00000
O       6.40000      1.00000      1.00000
H       7.36000      1.00000      1.00000
H       6.08000      1.91000      1.00000
O       8.20000      1.00000      1.00000
H       9.16000      1.00000      1.00000
H       7.88000      1.91000      1.00000
O       1.00000      2.80000      1.00000
H       1.96000      2.80000      1.00000
H       0.68000      3.71000      1.00000
O       2.80000      2.80000      1.00000
H       3.76000      2.80000      1.00000
H       2.48000      3.71000      1.00000
O       4.60000      2.80000      1.00000
H       5.56000      2.80000      1.00000
H       4.28000      3.71000      1.00000
O       6.40000      2.80000      1.00000
H       7.36000      2.80000      1.00000
H       6.08000      3.71000      1.00000
O       8.20000      2.80000      1.00000
H       9.16000      2.80000      1.00000
H       7.88000      3.71000      1.00000
O       1.00000      4.60000      1.00000
H       1.96000      4.60000      1.00000
H       0.68000      5.51000      1.00000
O       2.80000      4.60000      1.00000
H       3.76000      4.60000      1.00000
H       2.48000      5.51000      1.00000
O       4.60000      4.60000      1.00000
H       5.56000      4.60000      1.00000
H       4.28000      5.51000      1.00000
O       6.40000      4.60000      1.00000
H       7.36000      4.60000      1.00000
H       6.08000      5.51000      1.00000
O       8.20000      4.60000      1.00000
H       9.16000      4.60000      1.00000
H       7.88000      5.51000      1.00000
O       1.00000      6.40000      1.00000
H       1.96000      6.40000      1.00000
H       0.68000      7.31000      1.00000
O       2.80000      6.40000      1.00000
H       3.76000      6.40000      1.00000
H       2.48000      7.31000      1.00000
O       4.60000      6.40000      1.00000
H       5.56000      6.40000      1.00000
H       4.28000      7.31000      1.00000
O       6.40000      6.40000      1.00000
H       7.36000      6.40000      1.00000
H       6.08000      7.31000      1.00000
O       8.20000      6.40000      1.00000
H       9.16000      6.40000      1.00000
H       7.88000      7.31000      1.00000
O       1.00000      8.20000      1.00000
H       1.96000      8.20000      1.00000
H       0.68000      9.11000      1.00000
O       2.80000      8.20000      1.00000
H       3.76000      8.20000      1.00000
H       2.48000      9.11000      1.00000
O       4.60000      8.20000      1.00000
H       5.56000      8.20000      1.00000
H       4.28000      9.11000      1.00000
O       6.40000      8.20000      1.00000
H       7.36000      8.20000      1.00000
H       6.08000      9.11000      1.00000
O       8.20000      8.20000      1.00000
H       9.16000      8.20000      1.00000
H       7.88000      9.11000      1.00000
O       1.00000     10.00000      1.00000
H       1.96000     10.00000      1.00000
H       0.68000     10.91000      1.00000
O       2.80000     10.00000      1.00000
H       3.76000     10.00000      1.00000
H       2.48000     10.91000      1.00000
O       4.60000     10.00000      1.00000
H       5.56000     10.00000      1.00000
H       4.28000     10.91000      1.00000
O       6.40000     10.00000      1.00000
H       7.36000     10.00000      1.00000
H       6.08000     10.91000      1.00000
O       8.20000     10.00000      1.00000
H       9.16000     10.00000      1.00000
H       7.88000     10.91000      1.00000
90
Step: 100 PSVAP water box MD t=0.002ps
O       1.03094      1.03101      1.03671
H       2.00132      1.00113      1.00015
H       0.70983      1.92500      1.02020
O       2.82958      1.03900      0.98380
H       3.74756      0.95940      1.00783
H       2.43359      1.90656      1.00426
O       4.57865      1.00908      0.95305
H       5.51373      1.03226      0.98602
H       4.24271      1.91222      1.02700
O       6.37158      1.01229      0.95853
H       7.31517      1.00314      1.00406
H       6.09374      1.93261      1.04759
O       8.20163      0.98230      1.02952
H       9.13708      0.99390      0.95785
H       7.83254      1.95626      1.03360
O       1.01960      2.79090      0.96733
H       1.92564      2.77502      1.00492
H       0.70146      3.72602      0.97799
O       2.84549      2.82379      1.00544
H       3.77117      2.79196      0.97477
H       2.46560      3.73578      0.95144
O       4.56161      2.75460      0.95407
H       5.59555      2.82037      0.99742
H       4.23978      3.70916      0.99735
O       6.36732      2.79339      0.98985
H       7.37159      2.81351      0.95453
H       6.06746      3.72259      1.00031
O       8.23565      2.81587      0.96629
H       9.11706      2.81424      0.95265
H       7.88858      3.75402      1.00755
O       0.98882      4.61433      0.99583
H       1.96456      4.64415      0.98861
H       0.72612      5.55054      0.96958
O       2.75694      4.56008      0.95182
H       3.71944      4.61830      0.95712
H       2.46190      5.54449      0.95233
O       4.63145      4.57819      0.96182
H       5.57967      4.61289      1.03775
H       4.30351      5.54035      0.97820
O       6.36774      4.62506      1.03068
H       7.40905      4.59126      0.98720
H       6.10764      5.49408      1.04308
O       8.23584      4.59290      1.02509
H       9.18545      4.56031      1.04026
H       7.88053      5.54265      0.98200
O       1.03955      6.38892      0.95108
H       2.00054      6.35913      0.98193
H       0.72501      7.35506      1.00734
O       2.81318      6.39484      0.97932
H       3.74287      6.41725      1.02524
H       2.50916      7.33896      0.95912
O       4.59944      6.35576      1.00495
H       5.55415      6.43877      0.98509
H       4.24171      7.27430      1.02615
O       6.41182      6.36011      0.95841
H       7.38010      6.35728      1.03219
H       6.10062      7.26813      0.95848
O       8.24866      6.38743      0.98706
H       9.19128      6.44472      1.04860
H       7.90534      7.29763      0.95835
O       1.02771      8.20584      0.99242
H       2.00064      8.16112      0.99926
H       0.63114      9.10687      0.95563
O       2.76188      8.16175      1.01492
H       3.78460      8.20834      1.04622
H       2.46749      9.08857      1.03686
O       4.57236      8.24632      0.95122
H       5.60699      8.15432      1.03911
H       4.28277      9.15930      0.95738
O       6.40539      8.24693      1.00231
H       7.37294      8.21957      0.99545
H       6.09276      9.11843      1.04012
O       8.15454      8.17810      1.04504
H       9.19903      8.19557      1.01201
H       7.85774      9.07881      0.99637
O       0.98534     10.00837      0.95777
H       2.00744     10.04862      1.01982
H       0.68361     10.89095      1.03138
O       2.81847      9.96626      1.04109
H       3.79225     10.04498      1.02257
H       2.49134     10.90182      1.04327
O       4.63661      9.95452      0.95264
H       5.54765     10.03106      1.04873
H       4.24504     10.91941      0.98809
O       6.44699     10.03421      1.03383
H       7.35687      9.99148      0.97734
H       6.03564     10.94647      1.03129
O       8.24997     10.04966      1.00554
H       9.18690     10.04448      1.03496
H       7.85473     10.90505      0.96292
90
Step: 200 PSVAP water box MD t=0.004ps
O       1.09081      1.02123      0.94573
H       1.99434      1.02363      0.97163
H       0.60271      1.94431      1.00406
O       2.85446      1.00403      1.07044
H       3.77038      1.01219      1.07533
H       2.46070      1.83680      0.90576
O       4.65103      1.02406      1.04082
H       5.50259      0.92727      0.90291
H       4.25012      1.92798      0.97845
O       6.38749      1.08083      0.96965
H       7.36280      1.05673      0.97931
H       6.10442      1.98247      1.08990
O       8.12941      1.08532      0.99842
H       9.11165      0.99183      1.09601
H       7.87852      1.87575      1.02668
O       0.94803      2.71517      0.92578
H       1.88561      2.73038      0.92777
H       0.70817      3.64638      0.96913
O       2.87936      2.79479      1.03351
H       3.69446      2.73846      0.90817
H       2.41379      3.66572      0.93540
O       4.51774      2.72413      0.99216
H       5.50127      2.77285      1.00068
H       4.31808      3.61786      1.05988
O       6.42558      2.71635      1.07472
H       7.44417      2.71222      0.95538
H       6.14124      3.75965      0.93690
O       8.14187      2.77409      0.99690
H       9.18365      2.77378      0.99251
H       7.92949      3.61734      0.95049
O       1.04267      4.67904      1.00234
H       1.96642      4.52143      0.98948
H       0.68652      5.45849      0.95385
O       2.77546      4.50401      0.96442
H       3.70229      4.56550      0.92395
H       2.55811      5.52872      1.03582
O       4.65783      4.59969      0.91738
H       5.56742      4.61737      1.04909
H       4.26633      5.43552      0.95676
O       6.37262      4.62918      1.01416
H       7.33122      4.69730      1.02115
H       6.02745      5.43036      0.93057
O       8.14919      4.53214      0.93731
H       9.11702      4.53467      1.07935
H       7.79605      5.51490      0.98208
O       1.09648      6.32241      0.97957
H       2.05389      6.47310      1.06341
H       0.63158      7.24418      1.03373
O       2.88588      6.41135      1.01432
H       3.71600      6.45390      0.93741
H       2.44474      7.29509      1.00152
O       4.54848      6.32297      1.02212
H       5.51773      6.41625      0.93087
H       4.27623      7.31652      0.91036
O       6.36732      6.32688      0.91267
H       7.45799      6.36447      1.06197
H       6.03093      7.34630      1.05205
O       8.21913      6.39432      0.98237
H       9.12977      6.48591      1.06612
H       7.97301      7.23486      1.04617
O       1.08767      8.13625      0.91330
H       2.00822      8.21489      1.06837
H       0.60795      9.16905      0.94033
O       2.73273      8.13285      1.06291
H       3.79304      8.20461      0.97177
H       2.55544      9.08849      1.06332
O       4.58783      8.17539      0.99254
H       5.52028      8.24952      1.00054
H       4.22644      9.18991      0.97678
O       6.40871      8.28129      1.02485
H       7.28338      8.28797      1.02554
H       6.04698      9.03785      1.05881
O       8.22401      8.20669      1.07878
H       9.21772      8.13033      0.96234
H       7.82970      9.15879      0.90671
O       1.01398     10.05249      1.07535
H       1.92842     10.06425      0.92213
H       0.74929     10.83550      0.97946
O       2.85946      9.92998      0.94585
H       3.80445     10.04401      1.02823
H       2.51879     10.91854      0.95036
O       4.56914      9.93632      1.08169
H       5.57668      9.98017      0.99240
H       4.36946     10.84067      1.01725
O       6.40118     10.02229      0.90362
H       7.43442     10.08642      1.01303
H       6.11933     10.99450      1.04145
O       8.13051     10.01526      1.02134
H       9.14483     10.04729      1.08687
H       7.96511     10.90017      0.92265
90
Step: 300 PSVAP water box MD t=0.006ps
O       1.14545      1.10167      0.88740
H       2.08625      1.11097      1.00565
H       0.70738      1.87970      0.86643
O       2.75056      1.09086      0.85139
H       3.71005      0.96945      1.01122
H       2.60596      1.86390      0.95409
O       4.67125      0.98567      0.91738
H       5.54573      0.89226      0.90292
H       4.27951      1.88568      1.12445
O       6.35872      1.02418      1.03968
H       7.21393      1.04906      0.90341
H       6.21832      1.80460      0.97439
O       8.07560      1.14906      1.00066
H       9.18862      0.87012      1.07499
H       7.79297      2.02942      0.91154
O       0.90721      2.66096      0.99162
H       1.97945      2.66971      1.08266
H       0.66599      3.71732      0.98223
O       2.77023      2.81789      0.89657
H       3.66458      2.90854      1.13383
H       2.44199      3.64122      1.04320
O       4.57262      2.65762      0.89685
H       5.62479      2.84768      0.85813
H       4.19659      3.62932      1.05157
O       6.25591      2.68123      1.08997
H       7.26356      2.84582      0.92145
H       5.95983      3.63295      1.06668
O       8.30671      2.89907      0.96916
H       9.21043      2.71150      0.93794
H       7.99890      3.56390      0.87565
O       0.91237      4.45796      0.90443
H       1.98491      4.57643      1.11780
H       0.77523      5.46255      0.92783
O       2.76391      4.62709      0.93042
H       3.79724      4.57282      1.01561
H       2.46084      5.44834      1.13454
O       4.67908      4.49203      1.11054
H       5.55623      4.71837      1.08996
H       4.25756      5.36674      0.93060
O       6.41249      4.64004      0.92737
H       7.25181      4.70048      1.14532
H       6.08771      5.41150      0.93169
O       8.05552      4.72429      0.88533
H       9.18295      4.53222      1.01625
H       7.92543      5.60892      0.91193
O       0.85330      6.29107      1.12001
H       2.07217      6.42922      1.03016
H       0.72951      7.21261      1.12432
O       2.77563      6.36494      1.00568
H       3.62409      6.29989      1.07141
H       2.35484      7.34095      0.92360
O       4.56679      6.33661      0.95670
H       5.62571      6.33914      1.01992
H       4.27282      7.35910      1.13105
O       6.46977      6.31448      0.85935
H       7.28868      6.42852      0.86543
H       6.07891      7.33905      0.95027
O       8.28127      6.28198      0.87254
H       9.22846      6.39865      1.05652
H       7.86045      7.23392      1.09573
O       1.08982      8.25841      0.93164
H       1.98707      8.15829      0.87747
H       0.80519      9.00105      1.13507
O       2.78380      8.10554      1.01257
H       3.87188      8.26967      1.09197
H       2.52764      9.16768      1.10476
O       4.52490      8.19683      0.91636
H       5.70630      8.33322      0.86183
H       4.34167      9.23757      0.90417
O       6.42038      8.32465      0.86018
H       7.41923      8.13920      1.12732
H       6.22132      9.24328      0.99226
O       8.30861      8.30336      0.94573
H       9.25867      8.06110      1.02888
H       7.79900      8.99617      0.87309
O       1.05889      9.95196      1.06743
H       1.82961      9.94459      1.01185
H       0.76722     10.85563      1.03777
O       2.91579     10.03476      0.91989
H       3.61732     10.11103      0.85638
H       2.59241     10.91868      1.13172
O       4.68963     10.14938      0.95521
H       5.64016      9.97058      0.99396
H       4.31825     11.02210      1.14523
O       6.48048      9.97533      0.97641
H       7.43127      9.92163      0.88314
H       6.03639     10.84617      0.93889
O       8.12008      9.86263      0.85536
H       9.30632      9.97833      0.96530
H       7.93389     10.82548      1.13499
90
Step: 400 PSVAP water box MD t=0.008ps
O       1.11454      0.83576      0.96703
H       2.11165      1.17789      0.98696
H       0.72536      1.77681      1.19647
O       2.69267      1.17709      1.05986
H       3.80309      1.00508      0.89227
H       2.35061      1.79819      0.87458
O       4.71183      0.94005      0.82314
H       5.74764      1.15351      1.17110
H       4.47796      1.77956      0.95850
O       6.50330      1.07841      0.86156
H       7.48633      0.88978      0.88953
H       6.09479      1.94718      1.03203
O       8.03659      1.15098      0.90624
H       9.01181      1.15550      1.18226
H       8.02485      2.03381      1.06210
O       1.02034      2.63479      0.96338
H       1.90908      2.70390      1.08937
H       0.67835      3.54242      0.88807
O       2.87330      2.63045      1.14048
H       3.75806      2.79223      1.03696
H       2.60987      3.64912      1.07121
O       4.62629      2.70681      1.15145
H       5.67897      2.86338      1.14023
H       4.42692      3.79335      1.13481
O       6.47899      2.87206      1.04744
H       7.46109      2.66344      1.15235
H       6.22874      3.52170      1.13033
O       8.05155      2.73405      1.09740
H       9.02430      2.92719      1.13285
H       7.88299      3.51255      0.91482
O       1.04677      4.79247      1.05273
H       1.86392      4.65360      1.01599
H       0.79194      5.35279      1.10441
O       2.81651      4.78520      0.93675
H       3.81305      4.77281      0.84100
H       2.65489      5.58515      0.82713
O       4.52039      4.68327      0.82694
H       5.59287      4.53835      1.04837
H       4.09830      5.65861      1.18940
O       6.58755      4.69986      0.85203
H       7.46331      4.40983      0.80885
H       6.00944      5.50546      1.10816
O       8.27332      4.57836      0.90945
H       9.35885      4.57047      0.98055
H       7.74545      5.62792      1.07747
O       0.88831      6.23295      1.07220
H       2.02180      6.30930      1.18035
H       0.54042      7.28293      1.17745
O       2.76789      6.45541      0.95904
H       3.66969      6.59359      0.96373
H       2.63764      7.20198      0.88524
O       4.41245      6.46067      0.94741
H       5.70574      6.38928      1.18728
H       4.15421      7.45745      1.11064
O       6.50837      6.53791      1.10441
H       7.41049      6.25250      0.81301
H       6.24834      7.35666      1.11861
O       8.19261      6.24692      0.85007
H       9.23423      6.37212      0.88021
H       7.87664      7.13568      1.03279
O       0.90760      8.31902      0.92414
H       1.94209      8.00465      0.82898
H       0.63700      9.10198      1.04001
O       2.71667      8.27799      1.14405
H       3.87194      8.01585      0.99220
H       2.32197      9.00682      1.19467
O       4.45700      8.19956      1.04726
H       5.64099      8.22386      0.80391
H       4.21058      9.11708      0.83515
O       6.34025      8.01328      0.83143
H       7.31877      8.05309      1.02702
H       6.15579      9.23023      0.88006
O       8.06699      8.04183      1.05457
H       9.24259      8.01263      1.17448
H       7.70079      9.12652      1.08362
O       1.14839     10.08563      1.12069
H       1.89578     10.12593      0.83205
H       0.83793     10.92904      1.12692
O       2.78093     10.05743      1.01056
H       3.85264      9.83265      0.82414
H       2.37884     10.77382      1.14871
O       4.48769     10.19035      0.93476
H       5.43285     10.11588      1.06348
H       4.27928     10.93215      1.08768
O       6.29138     10.19853      1.18992
H       7.42013      9.87982      1.07209
H       5.90888     10.72226      0.90307
O       8.18505     10.14731      1.09087
H       9.25708      9.97020      0.93837
H       7.82842     11.10506      0.81604
